VARIABLES= X           Y           Z        TIME RESISTIVITY
ZONE  T="TIME:-0.314000E+15  KCYC:   0 " I=   0  J=   0  K=   0
  0.4122E+06  0.3107E+06  0.5500E+03  0.6912-309  0.2598E+03  0.0000E+00  0.0000E+00  0.1000E-17
  0.4123E+06  0.3116E+06  0.5500E+03  0.6912-309  0.2599E+03  0.0000E+00  0.0000E+00  0.1000E-17
  0.4118E+06  0.3115E+06  0.5500E+03  0.6912-309  0.2600E+03  0.0000E+00  0.0000E+00  0.1000E-17
  0.4125E+06  0.3104E+06  0.5500E+03  0.6912-309  0.2597E+03  0.0000E+00  0.0000E+00  0.1000E-17
  0.4137E+06  0.3109E+06  0.5500E+03  0.6912-309  0.2599E+03  0.0000E+00  0.0000E+00  0.1000E-17
  0.4113E+06  0.3108E+06  0.5500E+03  0.6912-309  0.2599E+03  0.0000E+00  0.0000E+00  0.1000E-17
  0.4121E+06  0.3099E+06  0.5500E+03  0.6912-309  0.2594E+03  0.0000E+00  0.0000E+00  0.1000E-17
  0.4120E+06  0.3098E+06  0.5500E+03  0.6912-309  0.2593E+03  0.0000E+00  0.0000E+00  0.1000E-17
  0.4117E+06  0.3108E+06  0.5500E+03  0.6912-309  0.2599E+03  0.0000E+00  0.0000E+00  0.1000E-17
  0.4129E+06  0.3097E+06  0.5500E+03  0.6912-309  0.2592E+03  0.0000E+00  0.0000E+00  0.1000E-17
  0.4128E+06  0.3103E+06  0.5500E+03  0.6912-309  0.2596E+03  0.0000E+00  0.0000E+00  0.1000E-17
  0.4129E+06  0.3112E+06  0.5500E+03  0.6912-309  0.2599E+03  0.0000E+00  0.0000E+00  0.1000E-17
  0.4121E+06  0.3110E+06  0.5500E+03  0.6912-309  0.2599E+03  0.0000E+00  0.0000E+00  0.1000E-17
  0.4121E+06  0.3106E+06  0.5500E+03  0.6912-309  0.2598E+03  0.0000E+00  0.0000E+00  0.1000E-17
  0.4126E+06  0.3106E+06  0.5500E+03  0.6912-309  0.2598E+03  0.0000E+00  0.0000E+00  0.1000E-17
  0.4124E+06  0.3106E+06  0.5500E+03  0.6912-309  0.2598E+03  0.0000E+00  0.0000E+00  0.1000E-17
  0.4119E+06  0.3106E+06  0.5500E+03  0.6912-309  0.2598E+03  0.0000E+00  0.0000E+00  0.1000E-17
  0.4123E+06  0.3109E+06  0.5500E+03  0.6912-309  0.2599E+03  0.0000E+00  0.0000E+00  0.1000E-17
  0.4121E+06  0.3108E+06  0.5500E+03  0.6912-309  0.2598E+03  0.0000E+00  0.0000E+00  0.1000E-17
  0.4121E+06  0.3103E+06  0.5500E+03  0.6912-309  0.2596E+03  0.0000E+00  0.0000E+00  0.1000E-17
  0.4122E+06  0.3105E+06  0.5500E+03  0.6912-309  0.2597E+03  0.0000E+00  0.0000E+00  0.1000E-17
  0.4125E+06  0.3111E+06  0.5500E+03  0.6912-309  0.2599E+03  0.0000E+00  0.0000E+00  0.1000E-17
  0.4129E+06  0.3107E+06  0.5500E+03  0.6912-309  0.2598E+03  0.0000E+00  0.0000E+00  0.1000E-17
  0.4120E+06  0.3105E+06  0.5500E+03  0.6912-309  0.2597E+03  0.0000E+00  0.0000E+00  0.1000E-17
  0.4120E+06  0.3101E+06  0.5500E+03  0.6912-309  0.2595E+03  0.0000E+00  0.0000E+00  0.1000E-17
  0.4122E+06  0.3097E+06  0.5500E+03  0.6912-309  0.2592E+03  0.0000E+00  0.0000E+00  0.1000E-17
  0.4129E+06  0.3101E+06  0.5500E+03  0.6912-309  0.2594E+03  0.0000E+00  0.0000E+00  0.1000E-17
  0.4124E+06  0.3096E+06  0.5500E+03  0.6912-309  0.2590E+03  0.0000E+00  0.0000E+00  0.1000E-17
  0.4126E+06  0.3098E+06  0.5500E+03  0.6912-309  0.2592E+03  0.0000E+00  0.0000E+00  0.1000E-17
  0.4122E+06  0.3091E+06  0.5500E+03  0.6912-309  0.2587E+03  0.0000E+00  0.0000E+00  0.1000E-17
  0.4123E+06  0.3092E+06  0.5500E+03  0.6912-309  0.2587E+03  0.0000E+00  0.0000E+00  0.1000E-17
  0.4124E+06  0.3089E+06  0.5500E+03  0.6912-309  0.2584E+03  0.0000E+00  0.0000E+00  0.1000E-17
  0.4140E+06  0.3099E+06  0.5500E+03  0.6912-309  0.2596E+03  0.0000E+00  0.0000E+00  0.1000E-17
  0.4140E+06  0.3094E+06  0.5500E+03  0.6912-309  0.2593E+03  0.0000E+00  0.0000E+00  0.1000E-17
  0.4136E+06  0.3100E+06  0.5500E+03  0.6912-309  0.2595E+03  0.0000E+00  0.0000E+00  0.1000E-17
  0.4139E+06  0.3102E+06  0.5500E+03  0.6912-309  0.2597E+03  0.0000E+00  0.0000E+00  0.1000E-17
  0.4116E+06  0.3107E+06  0.5500E+03  0.6912-309  0.2599E+03  0.0000E+00  0.0000E+00  0.1000E-17
  0.4125E+06  0.3108E+06  0.5500E+03  0.6912-309  0.2598E+03  0.0000E+00  0.0000E+00  0.1000E-17
  0.4124E+06  0.3111E+06  0.5500E+03  0.6912-309  0.2599E+03  0.0000E+00  0.0000E+00  0.1000E-17
  0.4119E+06  0.3108E+06  0.5500E+03  0.6912-309  0.2599E+03  0.0000E+00  0.0000E+00  0.1000E-17
  0.4119E+06  0.3103E+06  0.5500E+03  0.6912-309  0.2597E+03  0.0000E+00  0.0000E+00  0.1000E-17
  0.4115E+06  0.3103E+06  0.5500E+03  0.6912-309  0.2598E+03  0.0000E+00  0.0000E+00  0.1000E-17
  0.4116E+06  0.3094E+06  0.5500E+03  0.6912-309  0.2593E+03  0.0000E+00  0.0000E+00  0.1000E-17
  0.4155E+06  0.3116E+06  0.5500E+03  0.6912-309  0.2598E+03  0.0000E+00  0.0000E+00  0.1000E-17
  0.4149E+06  0.3118E+06  0.5500E+03  0.6912-309  0.2599E+03  0.0000E+00  0.0000E+00  0.1000E-17
  0.4157E+06  0.3107E+06  0.5500E+03  0.6912-309  0.2599E+03  0.0000E+00  0.0000E+00  0.1000E-17
  0.4150E+06  0.3122E+06  0.5500E+03  0.6912-309  0.2598E+03  0.0000E+00  0.0000E+00  0.1000E-17
  0.4153E+06  0.3121E+06  0.5500E+03  0.6912-309  0.2598E+03  0.0000E+00  0.0000E+00  0.1000E-17
  0.4155E+06  0.3125E+06  0.5500E+03  0.6912-309  0.2597E+03  0.0000E+00  0.0000E+00  0.1000E-17
  0.4167E+06  0.3095E+06  0.5500E+03  0.6912-309  0.2599E+03  0.0000E+00  0.0000E+00  0.1000E-17
  0.4144E+06  0.3106E+06  0.5500E+03  0.6912-309  0.2599E+03  0.0000E+00  0.0000E+00  0.1000E-17
  0.4050E+06  0.3030E+06  0.5500E+03  0.6912-309  0.2591E+03  0.0000E+00  0.0000E+00  0.1000E-17
  0.4050E+06  0.3040E+06  0.5500E+03  0.6912-309  0.2591E+03  0.0000E+00  0.0000E+00  0.1000E-17
  0.4050E+06  0.3130E+06  0.5500E+03  0.6912-309  0.2591E+03  0.0000E+00  0.0000E+00  0.1000E-17
  0.4100E+06  0.3080E+06  0.5500E+03  0.6912-309  0.2600E+03  0.0000E+00  0.0000E+00  0.1000E-17
  0.4100E+06  0.3090E+06  0.5500E+03  0.6912-309  0.2600E+03  0.0000E+00  0.0000E+00  0.1000E-17
  0.4100E+06  0.3100E+06  0.5500E+03  0.6912-309  0.2600E+03  0.0000E+00  0.0000E+00  0.1000E-17
  0.4100E+06  0.3110E+06  0.5500E+03  0.6912-309  0.2600E+03  0.0000E+00  0.0000E+00  0.1000E-17
  0.4100E+06  0.3120E+06  0.5500E+03  0.6912-309  0.2598E+03  0.0000E+00  0.0000E+00  0.1000E-17
  0.4100E+06  0.3130E+06  0.5500E+03  0.6912-309  0.2596E+03  0.0000E+00  0.0000E+00  0.1000E-17
  0.4100E+06  0.3140E+06  0.5500E+03  0.6912-309  0.2594E+03  0.0000E+00  0.0000E+00  0.1000E-17
  0.4100E+06  0.3150E+06  0.5500E+03  0.6912-309  0.2592E+03  0.0000E+00  0.0000E+00  0.1000E-17
  0.4100E+06  0.3160E+06  0.5500E+03  0.6912-309  0.2591E+03  0.0000E+00  0.0000E+00  0.1000E-17
  0.4100E+06  0.3170E+06  0.5500E+03  0.6912-309  0.2591E+03  0.0000E+00  0.0000E+00  0.1000E-17
  0.4050E+06  0.3140E+06  0.5500E+03  0.6912-309  0.2590E+03  0.0000E+00  0.0000E+00  0.1000E-17
  0.4100E+06  0.3180E+06  0.5500E+03  0.6912-309  0.2590E+03  0.0000E+00  0.0000E+00  0.1000E-17
  0.4100E+06  0.3190E+06  0.5500E+03  0.6912-309  0.2590E+03  0.0000E+00  0.0000E+00  0.1000E-17
  0.4100E+06  0.3200E+06  0.5500E+03  0.6912-309  0.2590E+03  0.0000E+00  0.0000E+00  0.1000E-17
  0.4100E+06  0.3210E+06  0.5500E+03  0.6912-309  0.2590E+03  0.0000E+00  0.0000E+00  0.1000E-17
  0.4110E+06  0.3030E+06  0.5500E+03  0.6912-309  0.2597E+03  0.0000E+00  0.0000E+00  0.1000E-17
  0.4110E+06  0.3040E+06  0.5500E+03  0.6912-309  0.2598E+03  0.0000E+00  0.0000E+00  0.1000E-17
  0.4110E+06  0.3050E+06  0.5500E+03  0.6912-309  0.2600E+03  0.0000E+00  0.0000E+00  0.1000E-17
  0.4110E+06  0.3060E+06  0.5500E+03  0.6912-309  0.2600E+03  0.0000E+00  0.0000E+00  0.1000E-17
  0.4110E+06  0.3070E+06  0.5500E+03  0.6912-309  0.2598E+03  0.0000E+00  0.0000E+00  0.1000E-17
  0.4110E+06  0.3140E+06  0.5500E+03  0.6912-309  0.2594E+03  0.0000E+00  0.0000E+00  0.1000E-17
  0.4050E+06  0.3150E+06  0.5500E+03  0.6912-309  0.2590E+03  0.0000E+00  0.0000E+00  0.1000E-17
  0.4110E+06  0.3150E+06  0.5500E+03  0.6912-309  0.2593E+03  0.0000E+00  0.0000E+00  0.1000E-17
  0.4110E+06  0.3160E+06  0.5500E+03  0.6912-309  0.2591E+03  0.0000E+00  0.0000E+00  0.1000E-17
  0.4110E+06  0.3170E+06  0.5500E+03  0.6912-309  0.2591E+03  0.0000E+00  0.0000E+00  0.1000E-17
  0.4110E+06  0.3180E+06  0.5500E+03  0.6912-309  0.2590E+03  0.0000E+00  0.0000E+00  0.1000E-17
  0.4110E+06  0.3190E+06  0.5500E+03  0.6912-309  0.2590E+03  0.0000E+00  0.0000E+00  0.1000E-17
  0.4110E+06  0.3200E+06  0.5500E+03  0.6912-309  0.2590E+03  0.0000E+00  0.0000E+00  0.1000E-17
  0.4110E+06  0.3210E+06  0.5500E+03  0.6912-309  0.2590E+03  0.0000E+00  0.0000E+00  0.1000E-17
  0.4120E+06  0.3030E+06  0.5500E+03  0.6912-309  0.2598E+03  0.0000E+00  0.0000E+00  0.1000E-17
  0.4120E+06  0.3040E+06  0.5500E+03  0.6912-309  0.2599E+03  0.0000E+00  0.0000E+00  0.1000E-17
  0.4120E+06  0.3050E+06  0.5500E+03  0.6912-309  0.2600E+03  0.0000E+00  0.0000E+00  0.1000E-17
  0.4050E+06  0.3160E+06  0.5500E+03  0.6912-309  0.2590E+03  0.0000E+00  0.0000E+00  0.1000E-17
  0.4120E+06  0.3060E+06  0.5500E+03  0.6912-309  0.2599E+03  0.0000E+00  0.0000E+00  0.1000E-17
  0.4120E+06  0.3070E+06  0.5500E+03  0.6912-309  0.2593E+03  0.0000E+00  0.0000E+00  0.1000E-17
  0.4120E+06  0.3140E+06  0.5500E+03  0.6912-309  0.2595E+03  0.0000E+00  0.0000E+00  0.1000E-17
  0.4120E+06  0.3150E+06  0.5500E+03  0.6912-309  0.2593E+03  0.0000E+00  0.0000E+00  0.1000E-17
  0.4120E+06  0.3160E+06  0.5500E+03  0.6912-309  0.2591E+03  0.0000E+00  0.0000E+00  0.1000E-17
  0.4120E+06  0.3170E+06  0.5500E+03  0.6912-309  0.2591E+03  0.0000E+00  0.0000E+00  0.1000E-17
  0.4120E+06  0.3180E+06  0.5500E+03  0.6912-309  0.2590E+03  0.0000E+00  0.0000E+00  0.1000E-17
  0.4120E+06  0.3190E+06  0.5500E+03  0.6912-309  0.2590E+03  0.0000E+00  0.0000E+00  0.1000E-17
  0.4120E+06  0.3200E+06  0.5500E+03  0.6912-309  0.2590E+03  0.0000E+00  0.0000E+00  0.1000E-17
  0.4120E+06  0.3210E+06  0.5500E+03  0.6912-309  0.2590E+03  0.0000E+00  0.0000E+00  0.1000E-17
  0.4050E+06  0.3170E+06  0.5500E+03  0.6912-309  0.2590E+03  0.0000E+00  0.0000E+00  0.1000E-17
  0.4130E+06  0.3030E+06  0.5500E+03  0.6912-309  0.2598E+03  0.0000E+00  0.0000E+00  0.1000E-17
  0.4130E+06  0.3040E+06  0.5500E+03  0.6912-309  0.2599E+03  0.0000E+00  0.0000E+00  0.1000E-17
  0.4130E+06  0.3050E+06  0.5500E+03  0.6912-309  0.2600E+03  0.0000E+00  0.0000E+00  0.1000E-17
  0.4130E+06  0.3060E+06  0.5500E+03  0.6912-309  0.2599E+03  0.0000E+00  0.0000E+00  0.1000E-17
  0.4130E+06  0.3070E+06  0.5500E+03  0.6912-309  0.2592E+03  0.0000E+00  0.0000E+00  0.1000E-17
  0.4130E+06  0.3140E+06  0.5500E+03  0.6912-309  0.2595E+03  0.0000E+00  0.0000E+00  0.1000E-17
  0.4130E+06  0.3150E+06  0.5500E+03  0.6912-309  0.2593E+03  0.0000E+00  0.0000E+00  0.1000E-17
  0.4130E+06  0.3160E+06  0.5500E+03  0.6912-309  0.2591E+03  0.0000E+00  0.0000E+00  0.1000E-17
  0.4130E+06  0.3170E+06  0.5500E+03  0.6912-309  0.2591E+03  0.0000E+00  0.0000E+00  0.1000E-17
  0.4130E+06  0.3180E+06  0.5500E+03  0.6912-309  0.2590E+03  0.0000E+00  0.0000E+00  0.1000E-17
  0.4050E+06  0.3180E+06  0.5500E+03  0.6912-309  0.2590E+03  0.0000E+00  0.0000E+00  0.1000E-17
  0.4130E+06  0.3190E+06  0.5500E+03  0.6912-309  0.2590E+03  0.0000E+00  0.0000E+00  0.1000E-17
  0.4130E+06  0.3200E+06  0.5500E+03  0.6912-309  0.2590E+03  0.0000E+00  0.0000E+00  0.1000E-17
  0.4130E+06  0.3210E+06  0.5500E+03  0.6912-309  0.2590E+03  0.0000E+00  0.0000E+00  0.1000E-17
  0.4140E+06  0.3030E+06  0.5500E+03  0.6912-309  0.2597E+03  0.0000E+00  0.0000E+00  0.1000E-17
  0.4140E+06  0.3040E+06  0.5500E+03  0.6912-309  0.2599E+03  0.0000E+00  0.0000E+00  0.1000E-17
  0.4140E+06  0.3050E+06  0.5500E+03  0.6912-309  0.2600E+03  0.0000E+00  0.0000E+00  0.1000E-17
  0.4140E+06  0.3060E+06  0.5500E+03  0.6912-309  0.2600E+03  0.0000E+00  0.0000E+00  0.1000E-17
  0.4140E+06  0.3070E+06  0.5500E+03  0.6912-309  0.2595E+03  0.0000E+00  0.0000E+00  0.1000E-17
  0.4140E+06  0.3140E+06  0.5500E+03  0.6912-309  0.2594E+03  0.0000E+00  0.0000E+00  0.1000E-17
  0.4140E+06  0.3150E+06  0.5500E+03  0.6912-309  0.2593E+03  0.0000E+00  0.0000E+00  0.1000E-17
  0.4050E+06  0.3190E+06  0.5500E+03  0.6912-309  0.2590E+03  0.0000E+00  0.0000E+00  0.1000E-17
  0.4140E+06  0.3160E+06  0.5500E+03  0.6912-309  0.2591E+03  0.0000E+00  0.0000E+00  0.1000E-17
  0.4140E+06  0.3170E+06  0.5500E+03  0.6912-309  0.2591E+03  0.0000E+00  0.0000E+00  0.1000E-17
  0.4140E+06  0.3180E+06  0.5500E+03  0.6912-309  0.2590E+03  0.0000E+00  0.0000E+00  0.1000E-17
  0.4140E+06  0.3190E+06  0.5500E+03  0.6912-309  0.2590E+03  0.0000E+00  0.0000E+00  0.1000E-17
  0.4140E+06  0.3200E+06  0.5500E+03  0.6912-309  0.2590E+03  0.0000E+00  0.0000E+00  0.1000E-17
  0.4140E+06  0.3210E+06  0.5500E+03  0.6912-309  0.2590E+03  0.0000E+00  0.0000E+00  0.1000E-17
  0.4150E+06  0.3030E+06  0.5500E+03  0.6912-309  0.2597E+03  0.0000E+00  0.0000E+00  0.1000E-17
  0.4150E+06  0.3040E+06  0.5500E+03  0.6912-309  0.2598E+03  0.0000E+00  0.0000E+00  0.1000E-17
  0.4150E+06  0.3050E+06  0.5500E+03  0.6912-309  0.2600E+03  0.0000E+00  0.0000E+00  0.1000E-17
  0.4150E+06  0.3060E+06  0.5500E+03  0.6912-309  0.2600E+03  0.0000E+00  0.0000E+00  0.1000E-17
  0.4050E+06  0.3200E+06  0.5500E+03  0.6912-309  0.2590E+03  0.0000E+00  0.0000E+00  0.1000E-17
  0.4150E+06  0.3070E+06  0.5500E+03  0.6912-309  0.2599E+03  0.0000E+00  0.0000E+00  0.1000E-17
  0.4150E+06  0.3140E+06  0.5500E+03  0.6912-309  0.2594E+03  0.0000E+00  0.0000E+00  0.1000E-17
  0.4150E+06  0.3150E+06  0.5500E+03  0.6912-309  0.2592E+03  0.0000E+00  0.0000E+00  0.1000E-17
  0.4150E+06  0.3160E+06  0.5500E+03  0.6912-309  0.2591E+03  0.0000E+00  0.0000E+00  0.1000E-17
  0.4150E+06  0.3170E+06  0.5500E+03  0.6912-309  0.2591E+03  0.0000E+00  0.0000E+00  0.1000E-17
  0.4150E+06  0.3180E+06  0.5500E+03  0.6912-309  0.2590E+03  0.0000E+00  0.0000E+00  0.1000E-17
  0.4150E+06  0.3190E+06  0.5500E+03  0.6912-309  0.2590E+03  0.0000E+00  0.0000E+00  0.1000E-17
  0.4150E+06  0.3200E+06  0.5500E+03  0.6912-309  0.2590E+03  0.0000E+00  0.0000E+00  0.1000E-17
  0.4150E+06  0.3210E+06  0.5500E+03  0.6912-309  0.2590E+03  0.0000E+00  0.0000E+00  0.1000E-17
  0.4160E+06  0.3030E+06  0.5500E+03  0.6912-309  0.2595E+03  0.0000E+00  0.0000E+00  0.1000E-17
  0.4050E+06  0.3210E+06  0.5500E+03  0.6912-309  0.2590E+03  0.0000E+00  0.0000E+00  0.1000E-17
  0.4160E+06  0.3040E+06  0.5500E+03  0.6912-309  0.2597E+03  0.0000E+00  0.0000E+00  0.1000E-17
  0.4160E+06  0.3050E+06  0.5500E+03  0.6912-309  0.2598E+03  0.0000E+00  0.0000E+00  0.1000E-17
  0.4160E+06  0.3060E+06  0.5500E+03  0.6912-309  0.2600E+03  0.0000E+00  0.0000E+00  0.1000E-17
  0.4160E+06  0.3070E+06  0.5500E+03  0.6912-309  0.2600E+03  0.0000E+00  0.0000E+00  0.1000E-17
  0.4160E+06  0.3140E+06  0.5500E+03  0.6912-309  0.2593E+03  0.0000E+00  0.0000E+00  0.1000E-17
  0.4160E+06  0.3150E+06  0.5500E+03  0.6912-309  0.2592E+03  0.0000E+00  0.0000E+00  0.1000E-17
  0.4160E+06  0.3160E+06  0.5500E+03  0.6912-309  0.2591E+03  0.0000E+00  0.0000E+00  0.1000E-17
  0.4160E+06  0.3170E+06  0.5500E+03  0.6912-309  0.2590E+03  0.0000E+00  0.0000E+00  0.1000E-17
  0.4160E+06  0.3180E+06  0.5500E+03  0.6912-309  0.2590E+03  0.0000E+00  0.0000E+00  0.1000E-17
  0.4160E+06  0.3190E+06  0.5500E+03  0.6912-309  0.2590E+03  0.0000E+00  0.0000E+00  0.1000E-17
  0.4060E+06  0.3030E+06  0.5500E+03  0.6912-309  0.2591E+03  0.0000E+00  0.0000E+00  0.1000E-17
  0.4160E+06  0.3200E+06  0.5500E+03  0.6912-309  0.2590E+03  0.0000E+00  0.0000E+00  0.1000E-17
  0.4160E+06  0.3210E+06  0.5500E+03  0.6912-309  0.2590E+03  0.0000E+00  0.0000E+00  0.1000E-17
  0.4170E+06  0.3030E+06  0.5500E+03  0.6912-309  0.2594E+03  0.0000E+00  0.0000E+00  0.1000E-17
  0.4170E+06  0.3040E+06  0.5500E+03  0.6912-309  0.2595E+03  0.0000E+00  0.0000E+00  0.1000E-17
  0.4170E+06  0.3050E+06  0.5500E+03  0.6912-309  0.2596E+03  0.0000E+00  0.0000E+00  0.1000E-17
  0.4170E+06  0.3060E+06  0.5500E+03  0.6912-309  0.2598E+03  0.0000E+00  0.0000E+00  0.1000E-17
  0.4170E+06  0.3070E+06  0.5500E+03  0.6912-309  0.2599E+03  0.0000E+00  0.0000E+00  0.1000E-17
  0.4170E+06  0.3140E+06  0.5500E+03  0.6912-309  0.2592E+03  0.0000E+00  0.0000E+00  0.1000E-17
  0.4170E+06  0.3150E+06  0.5500E+03  0.6912-309  0.2591E+03  0.0000E+00  0.0000E+00  0.1000E-17
  0.4170E+06  0.3160E+06  0.5500E+03  0.6912-309  0.2591E+03  0.0000E+00  0.0000E+00  0.1000E-17
  0.4050E+06  0.3050E+06  0.5500E+03  0.6912-309  0.2591E+03  0.0000E+00  0.0000E+00  0.1000E-17
  0.4060E+06  0.3040E+06  0.5500E+03  0.6912-309  0.2591E+03  0.0000E+00  0.0000E+00  0.1000E-17
  0.4170E+06  0.3170E+06  0.5500E+03  0.6912-309  0.2590E+03  0.0000E+00  0.0000E+00  0.1000E-17
  0.4170E+06  0.3180E+06  0.5500E+03  0.6912-309  0.2590E+03  0.0000E+00  0.0000E+00  0.1000E-17
  0.4170E+06  0.3190E+06  0.5500E+03  0.6912-309  0.2590E+03  0.0000E+00  0.0000E+00  0.1000E-17
  0.4170E+06  0.3200E+06  0.5500E+03  0.6912-309  0.2590E+03  0.0000E+00  0.0000E+00  0.1000E-17
  0.4170E+06  0.3210E+06  0.5500E+03  0.6912-309  0.2590E+03  0.0000E+00  0.0000E+00  0.1000E-17
  0.4180E+06  0.3030E+06  0.5500E+03  0.6912-309  0.2593E+03  0.0000E+00  0.0000E+00  0.1000E-17
  0.4180E+06  0.3040E+06  0.5500E+03  0.6912-309  0.2593E+03  0.0000E+00  0.0000E+00  0.1000E-17
  0.4180E+06  0.3050E+06  0.5500E+03  0.6912-309  0.2594E+03  0.0000E+00  0.0000E+00  0.1000E-17
  0.4180E+06  0.3060E+06  0.5500E+03  0.6912-309  0.2596E+03  0.0000E+00  0.0000E+00  0.1000E-17
  0.4180E+06  0.3070E+06  0.5500E+03  0.6912-309  0.2596E+03  0.0000E+00  0.0000E+00  0.1000E-17
  0.4060E+06  0.3050E+06  0.5500E+03  0.6912-309  0.2592E+03  0.0000E+00  0.0000E+00  0.1000E-17
  0.4180E+06  0.3080E+06  0.5500E+03  0.6912-309  0.2597E+03  0.0000E+00  0.0000E+00  0.1000E-17
  0.4180E+06  0.3090E+06  0.5500E+03  0.6912-309  0.2597E+03  0.0000E+00  0.0000E+00  0.1000E-17
  0.4180E+06  0.3100E+06  0.5500E+03  0.6912-309  0.2596E+03  0.0000E+00  0.0000E+00  0.1000E-17
  0.4180E+06  0.3110E+06  0.5500E+03  0.6912-309  0.2595E+03  0.0000E+00  0.0000E+00  0.1000E-17
  0.4180E+06  0.3120E+06  0.5500E+03  0.6912-309  0.2594E+03  0.0000E+00  0.0000E+00  0.1000E-17
  0.4180E+06  0.3130E+06  0.5500E+03  0.6912-309  0.2593E+03  0.0000E+00  0.0000E+00  0.1000E-17
  0.4180E+06  0.3140E+06  0.5500E+03  0.6912-309  0.2592E+03  0.0000E+00  0.0000E+00  0.1000E-17
  0.4180E+06  0.3150E+06  0.5500E+03  0.6912-309  0.2591E+03  0.0000E+00  0.0000E+00  0.1000E-17
  0.4180E+06  0.3160E+06  0.5500E+03  0.6912-309  0.2590E+03  0.0000E+00  0.0000E+00  0.1000E-17
  0.4180E+06  0.3170E+06  0.5500E+03  0.6912-309  0.2590E+03  0.0000E+00  0.0000E+00  0.1000E-17
  0.4060E+06  0.3060E+06  0.5500E+03  0.6912-309  0.2592E+03  0.0000E+00  0.0000E+00  0.1000E-17
  0.4180E+06  0.3180E+06  0.5500E+03  0.6912-309  0.2590E+03  0.0000E+00  0.0000E+00  0.1000E-17
  0.4180E+06  0.3190E+06  0.5500E+03  0.6912-309  0.2590E+03  0.0000E+00  0.0000E+00  0.1000E-17
  0.4180E+06  0.3200E+06  0.5500E+03  0.6912-309  0.2590E+03  0.0000E+00  0.0000E+00  0.1000E-17
  0.4180E+06  0.3210E+06  0.5500E+03  0.6912-309  0.2590E+03  0.0000E+00  0.0000E+00  0.1000E-17
  0.4190E+06  0.3030E+06  0.5500E+03  0.6912-309  0.2592E+03  0.0000E+00  0.0000E+00  0.1000E-17
  0.4190E+06  0.3040E+06  0.5500E+03  0.6912-309  0.2592E+03  0.0000E+00  0.0000E+00  0.1000E-17
  0.4190E+06  0.3050E+06  0.5500E+03  0.6912-309  0.2593E+03  0.0000E+00  0.0000E+00  0.1000E-17
  0.4190E+06  0.3060E+06  0.5500E+03  0.6912-309  0.2594E+03  0.0000E+00  0.0000E+00  0.1000E-17
  0.4190E+06  0.3070E+06  0.5500E+03  0.6912-309  0.2594E+03  0.0000E+00  0.0000E+00  0.1000E-17
  0.4190E+06  0.3080E+06  0.5500E+03  0.6912-309  0.2594E+03  0.0000E+00  0.0000E+00  0.1000E-17
  0.4060E+06  0.3070E+06  0.5500E+03  0.6912-309  0.2593E+03  0.0000E+00  0.0000E+00  0.1000E-17
  0.4190E+06  0.3090E+06  0.5500E+03  0.6912-309  0.2594E+03  0.0000E+00  0.0000E+00  0.1000E-17
  0.4190E+06  0.3100E+06  0.5500E+03  0.6912-309  0.2594E+03  0.0000E+00  0.0000E+00  0.1000E-17
  0.4190E+06  0.3110E+06  0.5500E+03  0.6912-309  0.2593E+03  0.0000E+00  0.0000E+00  0.1000E-17
  0.4190E+06  0.3120E+06  0.5500E+03  0.6912-309  0.2592E+03  0.0000E+00  0.0000E+00  0.1000E-17
  0.4190E+06  0.3130E+06  0.5500E+03  0.6912-309  0.2592E+03  0.0000E+00  0.0000E+00  0.1000E-17
  0.4190E+06  0.3140E+06  0.5500E+03  0.6912-309  0.2591E+03  0.0000E+00  0.0000E+00  0.1000E-17
  0.4190E+06  0.3150E+06  0.5500E+03  0.6912-309  0.2591E+03  0.0000E+00  0.0000E+00  0.1000E-17
  0.4190E+06  0.3160E+06  0.5500E+03  0.6912-309  0.2590E+03  0.0000E+00  0.0000E+00  0.1000E-17
  0.4190E+06  0.3170E+06  0.5500E+03  0.6912-309  0.2590E+03  0.0000E+00  0.0000E+00  0.1000E-17
  0.4190E+06  0.3180E+06  0.5500E+03  0.6912-309  0.2590E+03  0.0000E+00  0.0000E+00  0.1000E-17
  0.4060E+06  0.3080E+06  0.5500E+03  0.6912-309  0.2593E+03  0.0000E+00  0.0000E+00  0.1000E-17
  0.4190E+06  0.3190E+06  0.5500E+03  0.6912-309  0.2590E+03  0.0000E+00  0.0000E+00  0.1000E-17
  0.4190E+06  0.3200E+06  0.5500E+03  0.6912-309  0.2590E+03  0.0000E+00  0.0000E+00  0.1000E-17
  0.4190E+06  0.3210E+06  0.5500E+03  0.6912-309  0.2590E+03  0.0000E+00  0.0000E+00  0.1000E-17
  0.4200E+06  0.3030E+06  0.5500E+03  0.6912-309  0.2591E+03  0.0000E+00  0.0000E+00  0.1000E-17
  0.4200E+06  0.3040E+06  0.5500E+03  0.6912-309  0.2591E+03  0.0000E+00  0.0000E+00  0.1000E-17
  0.4200E+06  0.3050E+06  0.5500E+03  0.6912-309  0.2592E+03  0.0000E+00  0.0000E+00  0.1000E-17
  0.4200E+06  0.3060E+06  0.5500E+03  0.6912-309  0.2592E+03  0.0000E+00  0.0000E+00  0.1000E-17
  0.4200E+06  0.3070E+06  0.5500E+03  0.6912-309  0.2592E+03  0.0000E+00  0.0000E+00  0.1000E-17
  0.4200E+06  0.3080E+06  0.5500E+03  0.6912-309  0.2593E+03  0.0000E+00  0.0000E+00  0.1000E-17
  0.4200E+06  0.3090E+06  0.5500E+03  0.6912-309  0.2593E+03  0.0000E+00  0.0000E+00  0.1000E-17
  0.4060E+06  0.3090E+06  0.5500E+03  0.6912-309  0.2593E+03  0.0000E+00  0.0000E+00  0.1000E-17
  0.4200E+06  0.3100E+06  0.5500E+03  0.6912-309  0.2592E+03  0.0000E+00  0.0000E+00  0.1000E-17
  0.4200E+06  0.3110E+06  0.5500E+03  0.6912-309  0.2592E+03  0.0000E+00  0.0000E+00  0.1000E-17
  0.4200E+06  0.3120E+06  0.5500E+03  0.6912-309  0.2591E+03  0.0000E+00  0.0000E+00  0.1000E-17
  0.4200E+06  0.3130E+06  0.5500E+03  0.6912-309  0.2591E+03  0.0000E+00  0.0000E+00  0.1000E-17
  0.4200E+06  0.3140E+06  0.5500E+03  0.6912-309  0.2591E+03  0.0000E+00  0.0000E+00  0.1000E-17
  0.4200E+06  0.3150E+06  0.5500E+03  0.6912-309  0.2590E+03  0.0000E+00  0.0000E+00  0.1000E-17
  0.4200E+06  0.3160E+06  0.5500E+03  0.6912-309  0.2590E+03  0.0000E+00  0.0000E+00  0.1000E-17
  0.4200E+06  0.3170E+06  0.5500E+03  0.6912-309  0.2590E+03  0.0000E+00  0.0000E+00  0.1000E-17
  0.4200E+06  0.3180E+06  0.5500E+03  0.6912-309  0.2590E+03  0.0000E+00  0.0000E+00  0.1000E-17
  0.4200E+06  0.3190E+06  0.5500E+03  0.6912-309  0.2590E+03  0.0000E+00  0.0000E+00  0.1000E-17
  0.4060E+06  0.3100E+06  0.5500E+03  0.6912-309  0.2593E+03  0.0000E+00  0.0000E+00  0.1000E-17
  0.4200E+06  0.3200E+06  0.5500E+03  0.6912-309  0.2590E+03  0.0000E+00  0.0000E+00  0.1000E-17
  0.4200E+06  0.3210E+06  0.5500E+03  0.6912-309  0.2590E+03  0.0000E+00  0.0000E+00  0.1000E-17
  0.4210E+06  0.3030E+06  0.5500E+03  0.6912-309  0.2590E+03  0.0000E+00  0.0000E+00  0.1000E-17
  0.4210E+06  0.3040E+06  0.5500E+03  0.6912-309  0.2591E+03  0.0000E+00  0.0000E+00  0.1000E-17
  0.4210E+06  0.3050E+06  0.5500E+03  0.6912-309  0.2591E+03  0.0000E+00  0.0000E+00  0.1000E-17
  0.4210E+06  0.3060E+06  0.5500E+03  0.6912-309  0.2591E+03  0.0000E+00  0.0000E+00  0.1000E-17
  0.4210E+06  0.3070E+06  0.5500E+03  0.6912-309  0.2591E+03  0.0000E+00  0.0000E+00  0.1000E-17
  0.4210E+06  0.3080E+06  0.5500E+03  0.6912-309  0.2591E+03  0.0000E+00  0.0000E+00  0.1000E-17
  0.4210E+06  0.3090E+06  0.5500E+03  0.6912-309  0.2591E+03  0.0000E+00  0.0000E+00  0.1000E-17
  0.4210E+06  0.3100E+06  0.5500E+03  0.6912-309  0.2591E+03  0.0000E+00  0.0000E+00  0.1000E-17
  0.4060E+06  0.3110E+06  0.5500E+03  0.6912-309  0.2592E+03  0.0000E+00  0.0000E+00  0.1000E-17
  0.4210E+06  0.3110E+06  0.5500E+03  0.6912-309  0.2591E+03  0.0000E+00  0.0000E+00  0.1000E-17
  0.4210E+06  0.3120E+06  0.5500E+03  0.6912-309  0.2591E+03  0.0000E+00  0.0000E+00  0.1000E-17
  0.4210E+06  0.3130E+06  0.5500E+03  0.6912-309  0.2590E+03  0.0000E+00  0.0000E+00  0.1000E-17
  0.4210E+06  0.3140E+06  0.5500E+03  0.6912-309  0.2590E+03  0.0000E+00  0.0000E+00  0.1000E-17
  0.4210E+06  0.3150E+06  0.5500E+03  0.6912-309  0.2590E+03  0.0000E+00  0.0000E+00  0.1000E-17
  0.4210E+06  0.3160E+06  0.5500E+03  0.6912-309  0.2590E+03  0.0000E+00  0.0000E+00  0.1000E-17
  0.4210E+06  0.3170E+06  0.5500E+03  0.6912-309  0.2590E+03  0.0000E+00  0.0000E+00  0.1000E-17
  0.4210E+06  0.3180E+06  0.5500E+03  0.6912-309  0.2590E+03  0.0000E+00  0.0000E+00  0.1000E-17
  0.4210E+06  0.3190E+06  0.5500E+03  0.6912-309  0.2590E+03  0.0000E+00  0.0000E+00  0.1000E-17
  0.4210E+06  0.3200E+06  0.5500E+03  0.6912-309  0.2590E+03  0.0000E+00  0.0000E+00  0.1000E-17
  0.4060E+06  0.3120E+06  0.5500E+03  0.6912-309  0.2592E+03  0.0000E+00  0.0000E+00  0.1000E-17
  0.4210E+06  0.3210E+06  0.5500E+03  0.6912-309  0.2590E+03  0.0000E+00  0.0000E+00  0.1000E-17
  0.4220E+06  0.3030E+06  0.5500E+03  0.6912-309  0.2590E+03  0.0000E+00  0.0000E+00  0.1000E-17
  0.4220E+06  0.3040E+06  0.5500E+03  0.6912-309  0.2590E+03  0.0000E+00  0.0000E+00  0.1000E-17
  0.4220E+06  0.3050E+06  0.5500E+03  0.6912-309  0.2590E+03  0.0000E+00  0.0000E+00  0.1000E-17
  0.4220E+06  0.3060E+06  0.5500E+03  0.6912-309  0.2591E+03  0.0000E+00  0.0000E+00  0.1000E-17
  0.4220E+06  0.3070E+06  0.5500E+03  0.6912-309  0.2591E+03  0.0000E+00  0.0000E+00  0.1000E-17
  0.4220E+06  0.3080E+06  0.5500E+03  0.6912-309  0.2591E+03  0.0000E+00  0.0000E+00  0.1000E-17
  0.4220E+06  0.3090E+06  0.5500E+03  0.6912-309  0.2591E+03  0.0000E+00  0.0000E+00  0.1000E-17
  0.4220E+06  0.3100E+06  0.5500E+03  0.6912-309  0.2591E+03  0.0000E+00  0.0000E+00  0.1000E-17
  0.4220E+06  0.3110E+06  0.5500E+03  0.6912-309  0.2590E+03  0.0000E+00  0.0000E+00  0.1000E-17
  0.4060E+06  0.3130E+06  0.5500E+03  0.6912-309  0.2591E+03  0.0000E+00  0.0000E+00  0.1000E-17
  0.4220E+06  0.3120E+06  0.5500E+03  0.6912-309  0.2590E+03  0.0000E+00  0.0000E+00  0.1000E-17
  0.4220E+06  0.3130E+06  0.5500E+03  0.6912-309  0.2590E+03  0.0000E+00  0.0000E+00  0.1000E-17
  0.4220E+06  0.3140E+06  0.5500E+03  0.6912-309  0.2590E+03  0.0000E+00  0.0000E+00  0.1000E-17
  0.4220E+06  0.3150E+06  0.5500E+03  0.6912-309  0.2590E+03  0.0000E+00  0.0000E+00  0.1000E-17
  0.4220E+06  0.3160E+06  0.5500E+03  0.6912-309  0.2590E+03  0.0000E+00  0.0000E+00  0.1000E-17
  0.4220E+06  0.3170E+06  0.5500E+03  0.6912-309  0.2590E+03  0.0000E+00  0.0000E+00  0.1000E-17
  0.4220E+06  0.3180E+06  0.5500E+03  0.6912-309  0.2590E+03  0.0000E+00  0.0000E+00  0.1000E-17
  0.4220E+06  0.3190E+06  0.5500E+03  0.6912-309  0.2590E+03  0.0000E+00  0.0000E+00  0.1000E-17
  0.4220E+06  0.3200E+06  0.5500E+03  0.6912-309  0.2590E+03  0.0000E+00  0.0000E+00  0.1000E-17
  0.4220E+06  0.3210E+06  0.5500E+03  0.6912-309  0.2590E+03  0.0000E+00  0.0000E+00  0.1000E-17
  0.4050E+06  0.3060E+06  0.5500E+03  0.6912-309  0.2591E+03  0.0000E+00  0.0000E+00  0.1000E-17
  0.4060E+06  0.3140E+06  0.5500E+03  0.6912-309  0.2591E+03  0.0000E+00  0.0000E+00  0.1000E-17
  0.4230E+06  0.3030E+06  0.5500E+03  0.6912-309  0.2590E+03  0.0000E+00  0.0000E+00  0.1000E-17
  0.4230E+06  0.3040E+06  0.5500E+03  0.6912-309  0.2590E+03  0.0000E+00  0.0000E+00  0.1000E-17
  0.4230E+06  0.3050E+06  0.5500E+03  0.6912-309  0.2590E+03  0.0000E+00  0.0000E+00  0.1000E-17
  0.4230E+06  0.3060E+06  0.5500E+03  0.6912-309  0.2590E+03  0.0000E+00  0.0000E+00  0.1000E-17
  0.4230E+06  0.3070E+06  0.5500E+03  0.6912-309  0.2590E+03  0.0000E+00  0.0000E+00  0.1000E-17
  0.4230E+06  0.3080E+06  0.5500E+03  0.6912-309  0.2590E+03  0.0000E+00  0.0000E+00  0.1000E-17
  0.4230E+06  0.3090E+06  0.5500E+03  0.6912-309  0.2590E+03  0.0000E+00  0.0000E+00  0.1000E-17
  0.4230E+06  0.3100E+06  0.5500E+03  0.6912-309  0.2590E+03  0.0000E+00  0.0000E+00  0.1000E-17
  0.4230E+06  0.3110E+06  0.5500E+03  0.6912-309  0.2590E+03  0.0000E+00  0.0000E+00  0.1000E-17
  0.4230E+06  0.3120E+06  0.5500E+03  0.6912-309  0.2590E+03  0.0000E+00  0.0000E+00  0.1000E-17
  0.4060E+06  0.3150E+06  0.5500E+03  0.6912-309  0.2590E+03  0.0000E+00  0.0000E+00  0.1000E-17
  0.4230E+06  0.3130E+06  0.5500E+03  0.6912-309  0.2590E+03  0.0000E+00  0.0000E+00  0.1000E-17
  0.4230E+06  0.3140E+06  0.5500E+03  0.6912-309  0.2590E+03  0.0000E+00  0.0000E+00  0.1000E-17
  0.4230E+06  0.3150E+06  0.5500E+03  0.6912-309  0.2590E+03  0.0000E+00  0.0000E+00  0.1000E-17
  0.4230E+06  0.3160E+06  0.5500E+03  0.6912-309  0.2590E+03  0.0000E+00  0.0000E+00  0.1000E-17
  0.4230E+06  0.3170E+06  0.5500E+03  0.6912-309  0.2590E+03  0.0000E+00  0.0000E+00  0.1000E-17
  0.4230E+06  0.3180E+06  0.5500E+03  0.6912-309  0.2590E+03  0.0000E+00  0.0000E+00  0.1000E-17
  0.4230E+06  0.3190E+06  0.5500E+03  0.6912-309  0.2590E+03  0.0000E+00  0.0000E+00  0.1000E-17
  0.4230E+06  0.3200E+06  0.5500E+03  0.6912-309  0.2590E+03  0.0000E+00  0.0000E+00  0.1000E-17
  0.4230E+06  0.3210E+06  0.5500E+03  0.6912-309  0.2590E+03  0.0000E+00  0.0000E+00  0.1000E-17
  0.4103E+06  0.3074E+06  0.5500E+03  0.6912-309  0.2600E+03  0.0000E+00  0.0000E+00  0.1000E-17
  0.4060E+06  0.3160E+06  0.5500E+03  0.6912-309  0.2590E+03  0.0000E+00  0.0000E+00  0.1000E-17
  0.4108E+06  0.3084E+06  0.5500E+03  0.6912-309  0.2596E+03  0.0000E+00  0.0000E+00  0.1000E-17
  0.4103E+06  0.3094E+06  0.5500E+03  0.6912-309  0.2599E+03  0.0000E+00  0.0000E+00  0.1000E-17
  0.4108E+06  0.3104E+06  0.5500E+03  0.6912-309  0.2600E+03  0.0000E+00  0.0000E+00  0.1000E-17
  0.4103E+06  0.3114E+06  0.5500E+03  0.6912-309  0.2599E+03  0.0000E+00  0.0000E+00  0.1000E-17
  0.4108E+06  0.3124E+06  0.5500E+03  0.6912-309  0.2598E+03  0.0000E+00  0.0000E+00  0.1000E-17
  0.4103E+06  0.3134E+06  0.5500E+03  0.6912-309  0.2595E+03  0.0000E+00  0.0000E+00  0.1000E-17
  0.4113E+06  0.3074E+06  0.5500E+03  0.6912-309  0.2595E+03  0.0000E+00  0.0000E+00  0.1000E-17
  0.4118E+06  0.3084E+06  0.5500E+03  0.6912-309  0.2588E+03  0.0000E+00  0.0000E+00  0.1000E-17
  0.4113E+06  0.3094E+06  0.5500E+03  0.6912-309  0.2595E+03  0.0000E+00  0.0000E+00  0.1000E-17